----- GAMESS execution script 'rungms' -----
This job is running on host coulson
under operating system Linux at Sat Feb 27 03:22:21 IST 2016
Available scratch disk space (Kbyte units) at beginning of the job is
Filesystem           1K-blocks      Used Available Use% Mounted on
/dev/sda3            609329592 189320436 389057016  33% /home
GAMESS temporary binary files will be written to /home/avijitsen/scr_lan_gamess/1576509531
GAMESS supplementary output files will be written to /home/avijitsen/scr_lan_gamess/1576509531
Copying input file mcqdpt.inp to your run's scratch directory...
cp mcqdpt.inp /home/avijitsen/scr_lan_gamess/1576509531/mcqdpt.F05
unset echo
/home/avijitsen/gamess_2014/gamess/ddikick.x /home/avijitsen/gamess_2014/gamess/gamess.14.x mcqdpt -ddi 1 1 coulson -scr /home/avijitsen/scr_lan_gamess/1576509531

 Distributed Data Interface kickoff program.
 Initiating 1 compute processes on 1 nodes to run the following command:
 /home/avijitsen/gamess_2014/gamess/gamess.14.x mcqdpt 

          ******************************************************
          *         GAMESS VERSION =  5 DEC 2014 (R1)          *
          *             FROM IOWA STATE UNIVERSITY             *
          * M.W.SCHMIDT, K.K.BALDRIDGE, J.A.BOATZ, S.T.ELBERT, *
          *   M.S.GORDON, J.H.JENSEN, S.KOSEKI, N.MATSUNAGA,   *
          *          K.A.NGUYEN, S.J.SU, T.L.WINDUS,           *
          *       TOGETHER WITH M.DUPUIS, J.A.MONTGOMERY       *
          *         J.COMPUT.CHEM.  14, 1347-1363(1993)        *
          **************** 64 BIT LINUX VERSION ****************

  SINCE 1993, STUDENTS AND POSTDOCS WORKING AT IOWA STATE UNIVERSITY
  AND ALSO IN THEIR VARIOUS JOBS AFTER LEAVING ISU HAVE MADE IMPORTANT
  CONTRIBUTIONS TO THE CODE:
     IVANA ADAMOVIC, CHRISTINE AIKENS, YURI ALEXEEV, POOJA ARORA,
     ANDREY ASADCHEV, ROB BELL, PRADIPTA BANDYOPADHYAY, JONATHAN BENTZ,
     BRETT BODE, KURT BRORSEN, CALEB CARLIN, GALINA CHABAN, WEI CHEN,
     CHEOL HO CHOI, PAUL DAY, ALBERT DEFUSCO, NUWAN DESILVA, TIM DUDLEY,
     DMITRI FEDOROV, GRAHAM FLETCHER, MARK FREITAG, KURT GLAESEMANN,
     DAN KEMP, GRANT MERRILL, NORIYUKI MINEZAWA, JONATHAN MULLIN,
     TAKESHI NAGATA, SEAN NEDD, HEATHER NETZLOFF, BOSILJKA NJEGIC, RYAN OLSON,
     MIKE PAK, SPENCER PRUITT, LUKE ROSKOP, JIM SHOEMAKER, LYUDMILA SLIPCHENKO,
     TONY SMITH, SAROM SOK, JIE SONG, TETSUYA TAKETSUGU, SIMON WEBB,
     PENG XU, SOOHAENG YOO, FEDERICO ZAHARIEV

  ADDITIONAL CODE HAS BEEN PROVIDED BY COLLABORATORS IN OTHER GROUPS:
     IOWA STATE UNIVERSITY:
          JOE IVANIC, AARON WEST, LAIMUTIS BYTAUTAS, KLAUS RUEDENBERG
     UNIVERSITY OF TOKYO: KIMIHIKO HIRAO, TAKAHITO NAKAJIMA,
          TAKAO TSUNEDA, MUNEAKI KAMIYA, SUSUMU YANAGISAWA,
          KIYOSHI YAGI, MAHITO CHIBA, SEIKEN TOKURA, NAOAKI KAWAKAMI
     UNIVERSITY OF AARHUS: FRANK JENSEN
     UNIVERSITY OF IOWA: VISVALDAS KAIRYS, HUI LI
     NATIONAL INST. OF STANDARDS AND TECHNOLOGY: WALT STEVENS, DAVID GARMER
     UNIVERSITY OF PISA: BENEDETTA MENNUCCI, JACOPO TOMASI
     UNIVERSITY OF MEMPHIS: HENRY KURTZ, PRAKASHAN KORAMBATH
     UNIVERSITY OF ALBERTA: TOBY ZENG, MARIUSZ KLOBUKOWSKI
     UNIVERSITY OF NEW ENGLAND: MARK SPACKMAN
     MIE UNIVERSITY: HIROAKI UMEDA
     NAT. INST. OF ADVANCED INDUSTRIAL SCIENCE AND TECHNOLOGY: KAZUO KITAURA
     MICHIGAN STATE UNIVERSITY:
          KAROL KOWALSKI, MARTA WLOCH, JEFFREY GOUR, JESSE LUTZ,
          WEI LI, PIOTR PIECUCH
     UNIVERSITY OF SILESIA: MONIKA MUSIAL, STANISLAW KUCHARSKI
     FACULTES UNIVERSITAIRES NOTRE-DAME DE LA PAIX:
          OLIVIER QUINET, BENOIT CHAMPAGNE
     UNIVERSITY OF CALIFORNIA - SANTA BARBARA: BERNARD KIRTMAN
     INSTITUTE FOR MOLECULAR SCIENCE:
          KAZUYA ISHIMURA, MICHIO KATOUDA, AND SHIGERU NAGASE
     UNIVERSITY OF NOTRE DAME: ANNA POMOGAEVA, DAN CHIPMAN
     KYUSHU UNIVERSITY:
          HARUYUKI NAKANO,
          FENG LONG GU, JACEK KORCHOWIEC, MARCIN MAKOWSKI, AND YURIKO AOKI,
          HIROTOSHI MORI AND EISAKU MIYOSHI
     PENNSYLVANIA STATE UNIVERSITY:
          TZVETELIN IORDANOV, CHET SWALINA, JONATHAN SKONE,
          SHARON HAMMES-SCHIFFER
     WASEDA UNIVERSITY:
          MASATO KOBAYASHI, TOMOKO AKAMA, TSUGUKI TOUMA,
          TAKESHI YOSHIKAWA, YASUHIRO IKABATA, HIROMI NAKAI
     NANJING UNIVERSITY: SHUHUA LI
     UNIVERSITY OF NEBRASKA:
          PEIFENG SU, DEJUN SI, NANDUN THELLAMUREGE, YALI WANG, HUI LI
     UNIVERSITY OF ZURICH: ROBERTO PEVERATI, KIM BALDRIDGE
     N. COPERNICUS UNIVERSITY AND JACKSON STATE UNIVERSITY:
          MARIA BARYSZ
     UNIVERSITY OF COPENHAGEN: CASPER STEINMANN
     TOKYO INSTITUTE OF TECHNOLOGY: HIROYA NAKATA
     NAGOYA UNIVERSITY: YOSHIO NISHIMOTO, STEPHAN IRLE

 EXECUTION OF GAMESS BEGUN Sat Feb 27 03:22:21 2016

            ECHO OF THE FIRST FEW INPUT CARDS -
 INPUT CARD> $CONTRL ISPHER=1 UNITS=BOHR $END                                               
 INPUT CARD> $CONTRL SCFTYP=MCSCF RUNTYP=ENERGY $END                                        
 INPUT CARD> $CONTRL DASORT=.T. $END                                                        
 INPUT CARD>                                                                                
 INPUT CARD> $MCSCF CISTEP=GUGA CANONC=.T. $END                                             
 INPUT CARD> $DRT GROUP=C2V NMCC=4 NDOC=1 NVAL=1 ISTSYM=1 FORS=.T. $END                     
 INPUT CARD>                                                                                
 INPUT CARD> $CONTRL MPLEVL=2 $END                                                          
 INPUT CARD> $MRMP MRPT=MCQDPT $END                                                         
 INPUT CARD> $MCQDPT NMOFZC=0 NMODOC=4 ISTSYM=1 IFORB=1 $END                                
 INPUT CARD>                                                                                
 INPUT CARD> $BASIS GBASIS=CCD $END                                                         
 INPUT CARD> $GUESS GUESS=MOREAD NORB=19 $END                                               
 INPUT CARD>                                                                                
 INPUT CARD> $DATA                                                                          
 INPUT CARD>  HF molecule cc-DVZ basis at 8.0 angstrom                                      
 INPUT CARD>Cnv 2                                                                           
 INPUT CARD>                                                                                
 INPUT CARD> H            1.0      0.0000000   0.00000000  1.5                              
 INPUT CARD> F            9.0      0.0000000   0.00000000  0.00000000                       
 INPUT CARD> $END                                                                           
 INPUT CARD> $VEC                                                                           
 INPUT CARD> 1  1-1.77019458E-05 2.07617126E-05 0.00000000E+00 0.00000000E+00-1.10959372E-07
 INPUT CARD> 1  2 1.00045372E+00 1.81853909E-06-2.33290591E-03 0.00000000E+00 0.00000000E+00
 INPUT CARD> 1  3 4.99751282E-07 0.00000000E+00 0.00000000E+00-7.34346721E-07 1.56238926E-04
 INPUT CARD> 1  4 1.56238926E-04-3.12477852E-04 0.00000000E+00 0.00000000E+00 0.00000000E+00
 INPUT CARD> 2  1-6.55014032E-04 1.22723409E-03-0.00000000E+00-0.00000000E+00-2.57558199E-05
 INPUT CARD> 2  2-1.11165990E-05 5.13681166E-01 5.68796880E-01-0.00000000E+00-0.00000000E+00
 INPUT CARD> 2  3-8.97455351E-06-0.00000000E+00-0.00000000E+00-1.65570916E-05 6.10367697E-04
 INPUT CARD> 2  4 6.10367697E-04-1.22073539E-03-0.00000000E+00-0.00000000E+00-0.00000000E+00
 INPUT CARD> 3  1-0.00000000E+00-0.00000000E+00-0.00000000E+00 1.15883860E-05-0.00000000E+00
 INPUT CARD> 3  2-0.00000000E+00-0.00000000E+00-0.00000000E+00-0.00000000E+00 6.87406199E-01
 INPUT CARD> 3  3-0.00000000E+00-0.00000000E+00 4.63611841E-01-0.00000000E+00-0.00000000E+00
 INPUT CARD> 3  4-0.00000000E+00-0.00000000E+00-0.00000000E+00-0.00000000E+00 2.80101642E-07
 INPUT CARD> 4  1-0.00000000E+00-0.00000000E+00 1.15883860E-05-0.00000000E+00-0.00000000E+00
 INPUT CARD> 4  2-0.00000000E+00-0.00000000E+00-0.00000000E+00 6.87406199E-01-0.00000000E+00
 INPUT CARD> 4  3-0.00000000E+00 4.63611841E-01-0.00000000E+00-0.00000000E+00-0.00000000E+00
 INPUT CARD> 4  4-0.00000000E+00-0.00000000E+00-0.00000000E+00 2.80101642E-07-0.00000000E+00
 INPUT CARD> 5  1 1.72273623E-02 2.21411397E-02-0.00000000E+00-0.00000000E+00-1.23617816E-04
 INPUT CARD> 5  2-1.59056641E-05-9.66428633E-05-5.16429297E-05-0.00000000E+00-0.00000000E+00
 INPUT CARD> 5  3 7.10987163E-01-0.00000000E+00-0.00000000E+00 4.35118540E-01-4.78708573E-06
 INPUT CARD> 5  4-4.78708573E-06 9.57417146E-06-0.00000000E+00-0.00000000E+00-0.00000000E+00
 INPUT CARD> 6  1 5.87313339E-01 5.00847123E-01 0.00000000E+00 0.00000000E+00-3.72032435E-04
 INPUT CARD> 6  2-2.51358505E-04-2.04432290E-03-1.55680676E-03 0.00000000E+00 0.00000000E+00
 INPUT CARD> 6  3-3.10301523E-02 0.00000000E+00 0.00000000E+00-1.61466917E-02-9.56762619E-05
 INPUT CARD> 6  4-9.56762619E-05 1.91352524E-04 0.00000000E+00 0.00000000E+00 0.00000000E+00
 INPUT CARD> 7  1-1.23896778E+00 1.27583522E+00 0.00000000E+00 0.00000000E+00 4.29201808E-05
 INPUT CARD> 7  2-7.44968178E-03-2.17537821E-02 1.29056642E-02 0.00000000E+00 0.00000000E+00
 INPUT CARD> 7  3-3.60196124E-02 0.00000000E+00 0.00000000E+00 2.15209684E-02-4.57278808E-04
 INPUT CARD> 7  4-4.57278808E-04 9.14557617E-04 0.00000000E+00 0.00000000E+00 0.00000000E+00
    1000000 WORDS OF MEMORY AVAILABLE

     BASIS OPTIONS
     -------------
     GBASIS=CCD          IGAUSS=       0      POLAR=NONE    
     NDFUNC=       0     NFFUNC=       0     DIFFSP=       F
     NPFUNC=       0      DIFFS=       F     BASNAM=        


     RUN TITLE
     ---------
   HF molecule cc-DVZ basis at 8.0 angstrom                                      

 THE POINT GROUP OF THE MOLECULE IS CNV     
 THE ORDER OF THE PRINCIPAL AXIS IS     2

 ATOM      ATOMIC                      COORDINATES (BOHR)
           CHARGE         X                   Y                   Z
 H           1.0     0.0000000000        0.0000000000        1.5000000000
 F           9.0     0.0000000000        0.0000000000        0.0000000000

          INTERNUCLEAR DISTANCES (ANGS.)
          ------------------------------

                1 H          2 F     

   1 H       0.0000000    0.7937659 *
   2 F       0.7937659 *  0.0000000  

  * ... LESS THAN  3.000


     ATOMIC BASIS SET
     ----------------
 THE CONTRACTED PRIMITIVE FUNCTIONS HAVE BEEN UNNORMALIZED
 THE CONTRACTED BASIS FUNCTIONS ARE NOW NORMALIZED TO UNITY

  SHELL TYPE  PRIMITIVE        EXPONENT          CONTRACTION COEFFICIENT(S)

 H         

      1   S       1            13.0100000    0.033498726390
      1   S       2             1.9620000    0.234800801174
      1   S       3             0.4446000    0.813682957883

      2   S       4             0.1220000    1.000000000000

      3   P       5             0.7270000    1.000000000000

 F         

      4   S       6         14710.0000000    0.000720673709
      4   S       7          2207.0000000    0.005550486969
      4   S       8           502.8000000    0.028254207663
      4   S       9           142.6000000    0.106395828367
      4   S      10            46.4700000    0.286684201243
      4   S      11            16.7000000    0.448437965824
      4   S      12             6.3560000    0.264641181411
      4   S      13             1.3160000    0.015326060993

      5   S      14         14710.0000000   -0.000321193890
      5   S      15          2207.0000000   -0.002546191568
      5   S      16           502.8000000   -0.012643359508
      5   S      17           142.6000000   -0.051957491705
      5   S      18            46.4700000   -0.143447138126
      5   S      19            16.7000000   -0.332437623296
      5   S      20             6.3560000   -0.218659067503
      5   S      21             1.3160000    1.095590413862

      6   S      22             0.3897000    1.000000000000

      7   P      23            22.6700000    0.064834021494
      7   P      24             4.9770000    0.340535359831
      7   P      25             1.3470000    0.734646406794

      8   P      26             0.3471000    1.000000000000

      9   D      27             1.6400000    1.000000000000

 TOTAL NUMBER OF BASIS SET SHELLS             =    9
 NUMBER OF CARTESIAN GAUSSIAN BASIS FUNCTIONS =   20
 NOTE: THIS RUN WILL RESTRICT THE MO VARIATION SPACE TO SPHERICAL HARMONICS.
 THE NUMBER OF ORBITALS KEPT IN THE VARIATIONAL SPACE WILL BE PRINTED LATER.
 NUMBER OF ELECTRONS                          =   10
 CHARGE OF MOLECULE                           =    0
 SPIN MULTIPLICITY                            =    1
 NUMBER OF OCCUPIED ORBITALS (ALPHA)          =    5
 NUMBER OF OCCUPIED ORBITALS (BETA )          =    5
 TOTAL NUMBER OF ATOMS                        =    2
 THE NUCLEAR REPULSION ENERGY IS        6.0000000000

 THIS MOLECULE IS RECOGNIZED AS BEING LINEAR,
 ORBITAL LZ DEGENERACY TOLERANCE ETOLLZ= 1.00E-06

     $CONTRL OPTIONS
     ---------------
 SCFTYP=MCSCF        RUNTYP=ENERGY       EXETYP=RUN     
 MPLEVL=       2     CITYP =NONE         CCTYP =NONE         VBTYP =NONE    
 DFTTYP=NONE         TDDFT =NONE    
 MULT  =       1     ICHARG=       0     NZVAR =       0     COORD =UNIQUE  
 PP    =NONE         RELWFN=NONE         LOCAL =NONE         NUMGRD=       F
 ISPHER=       1     NOSYM =       0     MAXIT =      30     UNITS =BOHR    
 PLTORB=       F     MOLPLT=       F     AIMPAC=       F     FRIEND=        
 NPRINT=       7     IREST =       0     GEOM  =INPUT   
 NORMF =       0     NORMP =       0     ITOL  =      20     ICUT  =       9
 INTTYP=BEST         GRDTYP=BEST         QMTTOL= 1.0E-06

     $SYSTEM OPTIONS
     ---------------
  REPLICATED MEMORY=     1000000 WORDS (ON EVERY NODE).
 DISTRIBUTED MEMDDI=           0 MILLION WORDS IN AGGREGATE,
 MEMDDI DISTRIBUTED OVER   1 PROCESSORS IS           0 WORDS/PROCESSOR.
 TOTAL MEMORY REQUESTED ON EACH PROCESSOR=     1000000 WORDS.
 TIMLIM=      525600.00 MINUTES, OR     365.0 DAYS.
 PARALL= F  BALTYP=  DLB     KDIAG=    0  COREFL= F
 MXSEQ2=     300 MXSEQ3=     150  mem10=         0

          ----------------
          PROPERTIES INPUT
          ----------------

     MOMENTS            FIELD           POTENTIAL          DENSITY
 IEMOM =       1   IEFLD =       0   IEPOT =       0   IEDEN =       0
 WHERE =COMASS     WHERE =NUCLEI     WHERE =NUCLEI     WHERE =NUCLEI  
 OUTPUT=BOTH       OUTPUT=BOTH       OUTPUT=BOTH       OUTPUT=BOTH    
 IEMINT=       0   IEFINT=       0                     IEDINT=       0
                                                       MORB  =       0

     -------------------------------
     INTEGRAL TRANSFORMATION OPTIONS
     -------------------------------
     NWORD  =            0
     CUTOFF = 1.0E-09     MPTRAN =       0
     DIRTRF =       F     AOINTS =DUP     

          ----------------------
          MCSCF INPUT PARAMETERS
          ----------------------
 CONVERGER SELECTION: FOCAS = F  SOSCF = T  FULLNR = F  QUD = F  JACOBI = F
 SECULAR EQUATION METHOD CISTEP = GUGA    
 --- GENERAL INPUT OPTIONS:
 MAXIT =      60  MICIT =       5  ACURCY= 1.000E-06
 DAMP  =   0.000  CANONC=       T  ENGTOL= 1.000E-10
 EKT   =       F  NPUNCH=       2  NWORD =         0
 REGENERATE CI AFTER CONVERGENCE = NONE    
 DIABATIZATION AFTER CONVERGENCE =        F
 --- INPUT FOR SOSCF CONVERGER:
 FORS  =       T  NOFO  =       1

          ----------------------
          INTEGRAL INPUT OPTIONS
          ----------------------
 NOPK  =       1 NORDER=       0 SCHWRZ=       F

 ------------------------------------------
 MULTIREFERENCE PERTURBATION THEORY CONTROL
 ------------------------------------------
 MRPT=MCQDPT   READ CONVERGED MCSCF VECTORS= F


    ----------------------------
    MRMP/MCQDPT INPUT PARAMETERS
    ----------------------------
 # OF ELECTRONS                =        10
 SPIN MULTIPLICITY             =         1
 SPATIAL STATE SYMMETRY        =         1
 # OF STATES                   =         1 (DIMENSION OF EFFECTIVE HAMILTONIAN)
 # OF FROZEN CORE ORBITALS     =         0
 # OF DOUBLY OCCUPIED ORBITALS =         4
 # OF ACTIVE ORBITALS          =         2
 # OF EXTERNAL ORBITALS        =        14
 # OF FROZEN VIRTUAL ORBITALS  =         0

      IFORB      IROT    ISELCT    LENGTH    MAXCSF    MAXERI
          1         0         0      4096      2048      4096
     MAXROW       MDI    MXBASE    MXTRFR    NSOLUT     NSTCI     NSTOP
        200        50        50        80         1         1       100
     GENZRO    THRCON    THRENE    THRERI    THRGEN    THRWGT    REFWGT
  1.000D-12 1.000D-06-1.000D+00 1.000D-12 1.000D-08 1.000D-06       F
      NOSYM    PARAIO    DOORD0    DELSCR
          0         T         T         F

 THE WEIGHTS OF THE CAS STATES IN THE DENSITY MATRIX AVERAGING ARE
   1=  1.000000

     ------------------------------------------
     THE POINT GROUP IS CNV, NAXIS= 2, ORDER= 4
     ------------------------------------------

 -- VARIATIONAL SPACE WILL BE RESTRICTED TO PURE SPHERICAL HARMONICS ONLY --
 AFTER EXCLUDING CONTAMINANT COMBINATIONS FROM THE CARTESIAN GAUSSIAN BASIS
 SET, THE NUMBER OF SPHERICAL HARMONICS KEPT IN THE VARIATION SPACE IS   19

     DIMENSIONS OF THE SYMMETRY SUBSPACES ARE
 A1  =   10     A2  =    1     B1  =    4     B2  =    4

 ..... DONE SETTING UP THE RUN .....
 STEP CPU TIME =     0.03 TOTAL CPU TIME =        0.0 (    0.0 MIN)
 TOTAL WALL CLOCK TIME=        0.0 SECONDS, CPU UTILIZATION IS  75.00%

          ********************
          1 ELECTRON INTEGRALS
          ********************
 TIME TO DO   DIPOLE INTEGRALS=      0.00
 ...... END OF ONE-ELECTRON INTEGRALS ......
 STEP CPU TIME =     0.00 TOTAL CPU TIME =        0.0 (    0.0 MIN)
 TOTAL WALL CLOCK TIME=        0.0 SECONDS, CPU UTILIZATION IS  75.00%

          -------------
          GUESS OPTIONS
          -------------
          GUESS =MOREAD            NORB  =      19          NORDER=       0
          MIX   =       F          PRTMO =       F          PUNMO =       F
          TOLZ  = 1.0E-08          TOLE  = 1.0E-05
          SYMDEN=       F          PURIFY=       F

 INITIAL GUESS ORBITALS GENERATED BY MOREAD   ROUTINE.

 STATISTICS FOR GENERATION OF SYMMETRY ORBITAL -Q- MATRIX
 NUMBER OF CARTESIAN ATOMIC ORBITALS=         20
 NUMBER OF SPHERICAL CONTAMINANTS DROPPED=     1
 NUMBER OF LINEARLY DEPENDENT MOS DROPPED=     0
 TOTAL NUMBER OF MOS IN VARIATION SPACE=      19

 SYMMETRIES FOR INITIAL GUESS ORBITALS FOLLOW.   BOTH SET(S).
     6 ORBITALS ARE OCCUPIED (    1 CORE ORBITALS).
     1=A1       2=A1       3=B2       4=B1       5=A1       6=A1       7=A1  
     8=B1       9=B2      10=A1      11=A1      12=B2      13=B1      14=A1  
    15=A1      16=B2      17=B1      18=A2      19=A1  
 ...... END OF INITIAL ORBITAL SELECTION ......
 STEP CPU TIME =     0.00 TOTAL CPU TIME =        0.0 (    0.0 MIN)
 TOTAL WALL CLOCK TIME=        0.0 SECONDS, CPU UTILIZATION IS  75.00%

                    ----------------------
                    AO INTEGRAL TECHNOLOGY
                    ----------------------
     S,P,L SHELL ROTATED AXIS INTEGRALS, REPROGRAMMED BY
        KAZUYA ISHIMURA (IMS) AND JOSE SIERRA (SYNSTAR).
     S,P,D,L SHELL ROTATED AXIS INTEGRALS PROGRAMMED BY
        KAZUYA ISHIMURA (INSTITUTE FOR MOLECULAR SCIENCE).
     S,P,D,F,G SHELL TO TOTAL QUARTET ANGULAR MOMENTUM SUM 5,
        ERIC PROGRAM BY GRAHAM FLETCHER (ELORET AND NASA ADVANCED
        SUPERCOMPUTING DIVISION, AMES RESEARCH CENTER).
     S,P,D,F,G,L SHELL GENERAL RYS QUADRATURE PROGRAMMED BY
        MICHEL DUPUIS (PACIFIC NORTHWEST NATIONAL LABORATORY).

          --------------------
          2 ELECTRON INTEGRALS
          --------------------

 THE -PK- OPTION IS OFF, THE INTEGRALS ARE NOT IN SUPERMATRIX FORM.
 STORING   15000 INTEGRALS/RECORD ON DISK, USING 12 BYTES/INTEGRAL.
 TWO ELECTRON INTEGRAL EVALUATION REQUIRES   90441 WORDS OF MEMORY.
 II,JST,KST,LST =  1  1  1  1 NREC =         1 INTLOC =    1
 II,JST,KST,LST =  2  1  1  1 NREC =         1 INTLOC =    2
 II,JST,KST,LST =  3  1  1  1 NREC =         1 INTLOC =    7
 II,JST,KST,LST =  4  1  1  1 NREC =         1 INTLOC =   34
 II,JST,KST,LST =  5  1  1  1 NREC =         1 INTLOC =   84
 II,JST,KST,LST =  6  1  1  1 NREC =         1 INTLOC =  169
 II,JST,KST,LST =  7  1  1  1 NREC =         1 INTLOC =  304
 II,JST,KST,LST =  8  1  1  1 NREC =         1 INTLOC =  767
 II,JST,KST,LST =  9  1  1  1 NREC =         1 INTLOC = 1668
 TOTAL NUMBER OF NONZERO TWO-ELECTRON INTEGRALS =                5596
          1 INTEGRAL RECORDS WERE STORED ON DISK FILE  8.
  ...... END OF TWO-ELECTRON INTEGRALS .....
 STEP CPU TIME =     0.04 TOTAL CPU TIME =        0.1 (    0.0 MIN)
 TOTAL WALL CLOCK TIME=        0.1 SECONDS, CPU UTILIZATION IS 100.00%

          -----------------
          MCSCF CALCULATION
          -----------------

 ----- NUCLEAR ENERGY ----- =         6.0000000000

          -----------------------     ----------------------------
          GUGA DISTINCT ROW TABLE     WRITTEN BY B.R.BROOKS,P.SAXE
          -----------------------     ----------------------------

      GROUP=C2V          NPRT=       0
       FORS=       T   INTACT=       F
       FOCI=       F   MXNINT=   50000
       SOCI=       F   MXNEME=   10000
     IEXCIT=       0

      -CORE-    -INTERNAL-  -EXTERNAL-
     NFZC=   0   NDOC=   1   NEXT=   0
     NMCC=   4   NAOS=   0   NFZV=   0
                 NBOS=   0
                 NALP=   0
                 NVAL=   1

 THE MAXIMUM ELECTRON EXCITATION WILL BE   2

 SYMMETRIES FOR THE   4 CORE,   2 ACTIVE,   0 EXTERNAL MO-S ARE
     CORE= A1    A1    B2    B1  
   ACTIVE= A1    A1  
           DOC   VAL 

 MOLECULAR CHARGE          =    0
 NUMBER OF ALPHA ELECTRONS =    5
 NUMBER OF  BETA ELECTRONS =    5

 THE ELECTRONIC STATE IS  1-A1  

 THE DISTINCT ROW TABLE HAS         5 ROWS.
  THE WAVEFUNCTION CONTAINS         3 WALKS (CSF-S).

 TOTAL NUMBER OF INTEGRALS =          9
 NUMBER OF INTEGRALS/GROUP =          9
 NUMBER OF INTEGRAL GROUPS =          1
 MAXIMUM RECORD SIZES ARE     500 FOR UNIT 11      22 FOR UNIT 12
                            30001 FOR UNIT 15   30001 FOR UNIT 16
 ...... END OF -DRT- GENERATION ...... 
 STEP CPU TIME =     0.00 TOTAL CPU TIME =        0.1 (    0.0 MIN)
 TOTAL WALL CLOCK TIME=        0.1 SECONDS, CPU UTILIZATION IS  87.50%
 OPENING FILE DAFL30 WITH      81 LOGICAL RECORDS OF     400 WORDS
 WITH A MAXIMUM OF          81 PHYSICAL RECORDS OF    2048 WORDS

          ------------------------------
          CASSCF INTEGRAL TRANSFORMATION
          ------------------------------
 AO INTEGRALS WILL BE READ IN FROM DISK...

 NUMBER OF CORE MOLECULAR ORBITALS     =     4
 NUMBER OF OCCUPIED MOLECULAR ORBITALS =     6
 TOTAL NUMBER OF MOLECULAR ORBITALS    =    19
 TOTAL NUMBER OF ATOMIC ORBITALS       =    19

 ----- CHOOSING THREE STEPS TRANSFORMATION -----
 NUMBER OF WORDS USED      =      70081
 NUMBER OF WORDS AVAILABLE =    1000000
 NUMBER OF PASSES          =          1

 ----- NUCLEAR REPULSION ENERGY =      6.00000000
 ----- FROZEN CORE ENERGY       =   -103.52374837

 ... SYMMETRY ...           CPU =    0.00
 ... (PQ|RS) -> (PQ|KL) ... CPU =    0.01
 ... (PQ|KL) -> (IJ|KL) ... CPU =    0.00

 NUMBER OF (PQ|KL) INTEGRALS WRITTEN        261
 NUMBER OF (IJ|KL) INTEGRALS WRITTEN          6
 ..... END OF CAS INTEGRAL TRANSFORMATION .....
 STEP CPU TIME =     0.01 TOTAL CPU TIME =        0.1 (    0.0 MIN)
 TOTAL WALL CLOCK TIME=        0.1 SECONDS, CPU UTILIZATION IS  88.89%

          ------------------------
          GUGA-CI INTEGRAL SORTING
          ------------------------

     80029 WORDS NEEDED TO SORT              9 GUGA INTEGRALS IN MEMORY
   1000000 WORDS ARE AVAILABLE
 CHOOSING IN-MEMORY SORTING...
 IN CORE ALGORITHM SORTED              3 NON-ZERO 1E- INTEGRALS
 IN CORE ALGORITHM SORTED              6 NON-ZERO 2E- INTEGRALS
 ...... END OF INTEGRAL SORTING ...... 
 STEP CPU TIME =     0.00 TOTAL CPU TIME =        0.1 (    0.0 MIN)
 TOTAL WALL CLOCK TIME=        0.1 SECONDS, CPU UTILIZATION IS  88.89%

 -------------------------     ---------------------------------------
 ENERGY MATRIX CALCULATION     WRITTEN BY B.R.BROOKS,W.D.LAIDIG,P.SAXE
 -------------------------     ---------------------------------------

 COMPUTING THE HAMILTONIAN FOR THE         3 CSF-S...

           8 IS THE TOTAL NUMBER OF GENERATED LOOPS
           8 WERE CREATED BY THE LOOP-DRIVEN ALGORITHM
           0 WERE CREATED IMPLICITLY

           8 IS THE TOTAL NUMBER OF PROCESSED LOOPS
           5     DIAGONAL LOOPS ARE STORED ON WORK15 IN     1 BUFFERS OF  10000 ELEMENTS.
           3 OFF DIAGONAL LOOPS ARE STORED ON WORK16 IN     1 BUFFERS OF  10000 ELEMENTS.
 ...... END OF ENERGY MATRIX CALCULATION ...... 
 STEP CPU TIME =     0.00 TOTAL CPU TIME =        0.1 (    0.0 MIN)
 TOTAL WALL CLOCK TIME=        0.1 SECONDS, CPU UTILIZATION IS  88.89%

          -----------------------------------------
          DAVIDSON METHOD CI-MATRIX DIAGONALIZATION
                   WRITTEN BY STEVE ELBERT
          -----------------------------------------
 NUMBER OF STATES REQUESTED =     1
 MAX. NUMB. OF EXPAN. VEC   =    30
 MAX. NUMB. IMPROVED STATES =     1
 MAX. NUMB. OF ITERATIONS   =    50
 CONVERGENCE CRITERION      =    1.0E-06

 CHOOSING TO SOLVE SECULAR EQUATION IN MEMORY
 NUMBER OF WORDS AVAILABLE =    1000000
 NUMBER OF WORDS USED      =      30981
 ENERGY MATRIX BUFFER SIZE =      10000
 SOLUTION FOUND WITH DIRECT METHOD

 STATE #    1  ENERGY =     -99.874299338

      CSF      COEF    OCCUPANCY (IGNORING CORE)
      ---      ----    --------- --------- -----
        1    0.919134  20
        2    0.393874  11

 RENORMALIZED DAVIDSON CORRECTION FOR     1-REFERENCE CI.
 C0SQ= 0.844808 EREF=      -99.727413 E-E(REF)=   0.146887 E(Q)=   0.026983
 GIVES A E(SD+Q) ESTIMATE OF      -99.9012826418
 ...... END OF CI-MATRIX DIAGONALIZATION ......
 STEP CPU TIME =     0.00 TOTAL CPU TIME =        0.1 (    0.0 MIN)
 TOTAL WALL CLOCK TIME=        0.1 SECONDS, CPU UTILIZATION IS  88.89%

          -------------------------------------
          2-PARTICLE DENSITY MATRIX CALCULATION
          -------------------------------------
 2 BODY DENSITY IS AN AVERAGE OF  1 STATE(S).
   STATE    WEIGHT          ENERGY
     1    1.000000      -99.8742993384
            8 -DM2- LOOPS WERE GENERATED
            8 WERE CREATED BY THE LOOP-DRIVEN ALGORITHM
            0 WERE CREATED IMPLICITLY
          1 RECORDS OF LENGTH 50000 WRITTEN TO FILE 15
 ...... END OF 2-PARTICLE DENSITY MATRIX CALCULATION ......
 STEP CPU TIME =     0.00 TOTAL CPU TIME =        0.1 (    0.0 MIN)
 TOTAL WALL CLOCK TIME=        0.1 SECONDS, CPU UTILIZATION IS  88.89%

          ----------------------------------
          2-PARTICLE DENSITY MATRIX LABELING
          ----------------------------------
      96431 WORDS NEEDED TO LABEL DM2 MATRIX
          1 RECORDS OF LENGTH 50000  READ FROM FILE 15
          1 RECORDS OF LENGTH 15000 WRITTEN TO FILE 16
 ...... END OF 2-PARTICLE DENSITY MATRIX LABELING ......
 STEP CPU TIME =     0.00 TOTAL CPU TIME =        0.1 (    0.0 MIN)
 TOTAL WALL CLOCK TIME=        0.1 SECONDS, CPU UTILIZATION IS  88.89%

          --------------
          -DM2- ORDERING
          --------------
      30010 WORDS NEEDED (   1000000 AVAILABLE) TO ORDER DM2 IN MEMORY
 CHOOSING IN MEMORY ORDERING...
                               1 RECORDS OF LENGTH 15000  READ FROM FILE 16
          6 DM2 VALUES IN      1 RECORDS OF LENGTH 15000 WRITTEN TO FILE 15
 ...... END OF -DM2- ORDERING ...... 
 STEP CPU TIME =     0.00 TOTAL CPU TIME =        0.1 (    0.0 MIN)
 TOTAL WALL CLOCK TIME=        0.1 SECONDS, CPU UTILIZATION IS  88.89%

          --------------------------------------
          APPROXIMATE SECOND-ORDER MCSCF PROGRAM
          --------------------------------------
          PROGRAM WRITTEN BY G.CHABAN, A.MARQUEZ, AND M.DUPUIS

  NUMBER OF WORDS NEEDED     =      33392
  NUMBER AVAILABLE           =    1000000

 ----- GAMMA(IJKL)*(PQ|KL) PRODUCTS ----- CPU TIME =      0.000
 ----- ORBITAL SYMMETRY             ----- CPU TIME =      0.000
 ----- FOCK OPERATORS CONSTRUCTION  ----- CPU TIME =      0.000
 ----- WARNING : CORE-ACTIVE GAP    =    0.14625
     MICIT =   1 ASYMM =    0.362656 ROTMAX =    0.116659
 ----- EFFECTIVE FOCK + ROTATE ORBS ----- CPU TIME =      0.000
     MICIT =   2 ASYMM =    0.095818 ROTMAX =    0.007305
     MICIT =   3 ASYMM =    0.084539 ROTMAX =    0.010244
     MICIT =   4 ASYMM =    0.077087 ROTMAX =    0.008525
     MICIT =   5 ASYMM =    0.074561 ROTMAX =    0.006451
 ..... DONE WITH CASSCF ORBITAL UPDATE .....
 STEP CPU TIME =     0.00 TOTAL CPU TIME =        0.1 (    0.0 MIN)
 TOTAL WALL CLOCK TIME=        0.1 SECONDS, CPU UTILIZATION IS  88.89%

 ITER     TOTAL ENERGY      DEL(E)  LAGRANGIAN ASYMMETRY   SQCDF  MICIT   DAMP
   1      -99.874299338 -0.874299338  0.362656    6    2 1.167E-01  5   0.0000
       ----------START APPROXIMATE SECOND ORDER MCSCF----------
   2     -100.007638571 -0.133339233  0.042649    7    5 1.836E-02  1   0.0000
   3     -100.012465923 -0.004827352  0.032945    6    2 1.901E-03  1   0.0000
   4     -100.013756720 -0.001290797  0.023034    7    5 2.188E-02  1   0.0000
   5     -100.016229215 -0.002472495  0.023572    7    2 2.386E-02  1   0.0000
   6     -100.017591411 -0.001362196  0.033797    6    1 1.625E-03  1   0.0000
   7     -100.018070449 -0.000479038  0.013519    7    2 1.436E-04  1   0.0000
   8     -100.018229033 -0.000158583  0.006036   14    5 1.463E-04  1   0.0000
   9     -100.018283625 -0.000054593  0.007059    6    1 4.010E-04  1   0.0000
  10     -100.018349620 -0.000065995  0.006054    7    2 7.262E-04  1   0.0000
  11     -100.018416150 -0.000066530  0.005756    7    2 4.864E-04  1   0.0000
  12     -100.018455529 -0.000039380  0.002557    7    2 1.071E-04  1   0.0000
  13     -100.018472248 -0.000016718  0.001536    6    2 5.495E-05  1   0.0000
  14     -100.018482744 -0.000010496  0.002129    6    2 1.724E-04  1   0.0000
  15     -100.018497289 -0.000014545  0.002781    7    2 3.118E-04  1   0.0000
  16     -100.018512180 -0.000014891  0.002353    7    2 1.172E-04  1   0.0000
  17     -100.018519194 -0.000007015  0.001197    6    1 2.985E-06  1   0.0000
  18     -100.018520840 -0.000001646  0.000589   10    5 1.338E-06  1   0.0000
  19     -100.018521342 -0.000000502  0.000275   10    5 3.579E-06  1   0.0000
  20     -100.018521898 -0.000000556  0.000313    7    2 1.219E-05  1   0.0000
  21     -100.018522557 -0.000000659  0.000279   15    5 2.978E-06  1   0.0000
  22     -100.018522726 -0.000000169  0.000185   15    5 5.249E-07  1   0.0000
  23     -100.018522765 -0.000000040  0.000092   11    5 1.311E-07  1   0.0000
  24     -100.018522787 -0.000000022  0.000107   11    5 3.221E-07  1   0.0000
  25     -100.018522823 -0.000000035  0.000079   11    5 3.168E-07  1   0.0000
  26     -100.018522847 -0.000000025  0.000042   11    2 4.687E-08  1   0.0000
  27     -100.018522852 -0.000000005  0.000011   11    2 4.254E-09  1   0.0000
  28     -100.018522852 -0.000000000  0.000006    6    1 1.306E-10  1   0.0000
  29     -100.018522852 -0.000000000  0.000005    6    1 5.145E-11  1   0.0000
  30     -100.018522852 -0.000000000  0.000004    6    1 9.438E-11  1   0.0000
  31     -100.018522852 -0.000000000  0.000002    6    1 5.477E-11  1   0.0000
  32     -100.018522852 -0.000000000  0.000001    6    1 1.993E-11  1   0.0000

          --------------------
          LAGRANGIAN CONVERGED
          --------------------

 FINAL MCSCF ENERGY IS     -100.0185228524 AFTER  32 ITERATIONS

 -MCCI- BASED ON OPTIMIZED ORBITALS
 ----------------------------------

 PLEASE NOTE: IF THE ACTIVE ORBITALS ARE CANONICALIZED BELOW,
 THE FOLLOWING CI EXPANSION COEFFICIENTS AND THE DENSITY DO NOT
 CORRESPOND TO THE PRINTED ORBITALS.  THE PRINTED EXPANSIONS MATCH
 THE ORBITALS USED DURING THE LAST ITERATION.  IF YOU WISH TO SEE
 CI EXPANSIONS BASED ON THE CANONICAL (OR NATURAL) ORBITALS, YOU
 MUST RUN A CI CALCULATION WITH THAT ORBITAL CHOICE READ IN $VEC.

 STATE #    1  ENERGY =    -100.018522852

      CSF      COEF    OCCUPANCY (IGNORING CORE)
      ---      ----    --------- --------- -----
        1    0.961495  20
        2    0.271540  11
        3   -0.042338  02

 DENSITY MATRIX OVER ACTIVE MO-S

             1           2

    1    1.9226810
    2    0.3529709   0.0773190

 FORMING THE "STANDARD FOCK OPERATOR" USING INTEGRALS FROM DISK...
     4 FILLED,    2 ACTIVE, AND   13 VIRTUAL ORBITALS  WILL BE CANONICALIZED

          ----------------------
          MCSCF NATURAL ORBITALS
          ----------------------

                      1          2          3          4          5
                  -26.2753    -1.4160    -0.6443    -0.6443     1.9879
                     A1         A1         B2         B1         A1  
    1  H  1  S   -0.002340  -0.002136  -0.000000  -0.000000   0.495090
    2  H  1  S    0.000596  -0.003869  -0.000000  -0.000000   0.006120
    3  H  1  X   -0.000000  -0.000000  -0.000000   0.039825  -0.000000
    4  H  1  Y   -0.000000  -0.000000   0.039825  -0.000000  -0.000000
    5  H  1  Z    0.001203  -0.022391  -0.000000  -0.000000  -0.076869
    6  F  2  S    1.000771  -0.006479  -0.000000  -0.000000   0.004323
    7  F  2  S    0.000434   0.474418  -0.000000  -0.000000   0.128707
    8  F  2  S   -0.001924   0.542678  -0.000000  -0.000000  -0.107273
    9  F  2  X   -0.000000  -0.000000  -0.000000   0.664233  -0.000000
   10  F  2  Y   -0.000000  -0.000000   0.664233  -0.000000  -0.000000
   11  F  2  Z   -0.000435  -0.212084  -0.000000  -0.000000   0.534452
   12  F  2  X   -0.000000  -0.000000  -0.000000   0.468378  -0.000000
   13  F  2  Y   -0.000000  -0.000000   0.468378  -0.000000  -0.000000
   14  F  2  Z   -0.000921  -0.157579  -0.000000  -0.000000   0.209313
   15  F  2 XX   -0.000045   0.001565  -0.000000  -0.000000  -0.011473
   16  F  2 YY   -0.000045   0.001565  -0.000000  -0.000000  -0.011473
   17  F  2 ZZ    0.000089  -0.003130  -0.000000  -0.000000   0.022945
   18  F  2 XY   -0.000000  -0.000000  -0.000000  -0.000000  -0.000000
   19  F  2 XZ   -0.000000  -0.000000  -0.000000   0.014102  -0.000000
   20  F  2 YZ   -0.000000  -0.000000   0.014102  -0.000000  -0.000000

                      6
                    0.0121
                     A1  
    1  H  1  S    1.201186
    2  H  1  S    0.013919
    3  H  1  X    0.000000
    4  H  1  Y    0.000000
    5  H  1  Z   -0.140074
    6  F  2  S   -0.124450
    7  F  2  S   -0.424198
    8  F  2  S   -0.371660
    9  F  2  X    0.000000
   10  F  2  Y    0.000000
   11  F  2  Z   -0.835237
   12  F  2  X    0.000000
   13  F  2  Y    0.000000
   14  F  2  Z   -0.076767
   15  F  2 XX    0.039160
   16  F  2 YY    0.039160
   17  F  2 ZZ   -0.078319
   18  F  2 XY    0.000000
   19  F  2 XZ    0.000000
   20  F  2 YZ    0.000000

 LZ VALUE ANALYSIS FOR THE MOS
 ----------------------------------------
 MO     1 (    1) HAS LZ(WEIGHT)= 0.00(100.0%) 
 MO     2 (    2) HAS LZ(WEIGHT)= 0.00(100.0%) 
 MO     3 (    3) HAS LZ(WEIGHT)=-1.00( 50.0%)  1.00( 50.0%) 
 MO     4 (    3) HAS LZ(WEIGHT)=-1.00( 50.0%)  1.00( 50.0%) 
 MO     5 (    4) HAS LZ(WEIGHT)= 0.00(100.0%) 
 MO     6 (    5) HAS LZ(WEIGHT)= 0.00(100.0%) 
 MO     7 (    6) HAS LZ(WEIGHT)= 0.00(100.0%) 
 MO     8 (    7) HAS LZ(WEIGHT)= 0.00(100.0%) 
 MO     9 (    8) HAS LZ(WEIGHT)=-1.00( 50.0%)  1.00( 50.0%) 
 MO    10 (    8) HAS LZ(WEIGHT)=-1.00( 50.0%)  1.00( 50.0%) 
 MO    11 (    9) HAS LZ(WEIGHT)=-1.00( 50.0%)  1.00( 50.0%) 
 MO    12 (    9) HAS LZ(WEIGHT)=-1.00( 50.0%)  1.00( 50.0%) 
 MO    13 (   10) HAS LZ(WEIGHT)= 0.00(100.0%) 
 MO    14 (   11) HAS LZ(WEIGHT)= 0.00(100.0%) 
 MO    15 (   12) HAS LZ(WEIGHT)=-2.00( 50.0%)  2.00( 50.0%) 
 MO    16 (   12) HAS LZ(WEIGHT)=-2.00( 50.0%)  2.00( 50.0%) 
 MO    17 (   13) HAS LZ(WEIGHT)=-1.00( 50.0%)  1.00( 50.0%) 
 MO    18 (   13) HAS LZ(WEIGHT)=-1.00( 50.0%)  1.00( 50.0%) 
 MO    19 (   14) HAS LZ(WEIGHT)= 0.00(100.0%) 

          ------------------------
          MCSCF OPTIMIZED ORBITALS
          ------------------------

                      1          2          3          4          5
                  -26.2753    -1.4160    -0.6443    -0.6443    -1.0157
                     A1         A1         B2         B1         A1  
    1  H  1  S   -0.002340  -0.002136  -0.000000  -0.000000   0.492767
    2  H  1  S    0.000596  -0.003869  -0.000000  -0.000000   0.006094
    3  H  1  X   -0.000000  -0.000000  -0.000000   0.039825  -0.000000
    4  H  1  Y   -0.000000  -0.000000   0.039825  -0.000000  -0.000000
    5  H  1  Z    0.001203  -0.022391  -0.000000  -0.000000  -0.076598
    6  F  2  S    1.000771  -0.006479  -0.000000  -0.000000   0.004564
    7  F  2  S    0.000434   0.474418  -0.000000  -0.000000   0.129527
    8  F  2  S   -0.001924   0.542678  -0.000000  -0.000000  -0.106554
    9  F  2  X   -0.000000  -0.000000  -0.000000   0.664233  -0.000000
   10  F  2  Y   -0.000000  -0.000000   0.664233  -0.000000  -0.000000
   11  F  2  Z   -0.000435  -0.212084  -0.000000  -0.000000   0.536066
   12  F  2  X   -0.000000  -0.000000  -0.000000   0.468378  -0.000000
   13  F  2  Y   -0.000000  -0.000000   0.468378  -0.000000  -0.000000
   14  F  2  Z   -0.000921  -0.157579  -0.000000  -0.000000   0.209461
   15  F  2 XX   -0.000045   0.001565  -0.000000  -0.000000  -0.011548
   16  F  2 YY   -0.000045   0.001565  -0.000000  -0.000000  -0.011548
   17  F  2 ZZ    0.000089  -0.003130  -0.000000  -0.000000   0.023097
   18  F  2 XY   -0.000000  -0.000000  -0.000000  -0.000000  -0.000000
   19  F  2 XZ   -0.000000  -0.000000  -0.000000   0.014102  -0.000000
   20  F  2 YZ   -0.000000  -0.000000   0.014102  -0.000000  -0.000000

                      6          7          8          9         10
                    1.1049     0.3922     1.3454     1.4353     1.4353
                     A1         A1         A1         B2         B1  
    1  H  1  S    1.202141  -0.466635  -1.585998  -0.000000  -0.000000
    2  H  1  S    0.013931   1.573748   0.009956  -0.000000  -0.000000
    3  H  1  X    0.000000  -0.000000  -0.000000  -0.000000   0.023505
    4  H  1  Y    0.000000  -0.000000  -0.000000   0.023505  -0.000000
    5  H  1  Z   -0.140222  -0.229197   0.215286  -0.000000  -0.000000
    6  F  2  S   -0.124442   0.053416   0.013206  -0.000000  -0.000000
    7  F  2  S   -0.423948   0.032776   0.165011  -0.000000  -0.000000
    8  F  2  S   -0.371866  -0.779319   0.854974  -0.000000  -0.000000
    9  F  2  X    0.000000  -0.000000  -0.000000  -0.000000  -0.935414
   10  F  2  Y    0.000000  -0.000000  -0.000000  -0.935414  -0.000000
   11  F  2  Z   -0.834202   0.124895  -0.477515  -0.000000  -0.000000
   12  F  2  X    0.000000  -0.000000  -0.000000  -0.000000   1.026206
   13  F  2  Y    0.000000  -0.000000  -0.000000   1.026206  -0.000000
   14  F  2  Z   -0.076363  -0.285100   1.715934  -0.000000  -0.000000
   15  F  2 XX    0.039137   0.020850   0.020696  -0.000000  -0.000000
   16  F  2 YY    0.039137   0.020850   0.020696  -0.000000  -0.000000
   17  F  2 ZZ   -0.078275  -0.041700  -0.041393  -0.000000  -0.000000
   18  F  2 XY    0.000000  -0.000000  -0.000000  -0.000000  -0.000000
   19  F  2 XZ    0.000000  -0.000000  -0.000000  -0.000000  -0.003285
   20  F  2 YZ    0.000000  -0.000000  -0.000000  -0.003285  -0.000000

                     11         12         13         14         15
                    1.6139     1.6139     2.1047     2.7003     3.9886
                     B2         B1         A1         A1         A2  
    1  H  1  S   -0.000000  -0.000000  -0.901762  -1.159489   0.000000
    2  H  1  S   -0.000000  -0.000000  -0.551187  -0.333878   0.000000
    3  H  1  X   -0.000000   1.121617  -0.000000   0.000000   0.000000
    4  H  1  Y    1.121617  -0.000000  -0.000000   0.000000   0.000000
    5  H  1  Z   -0.000000  -0.000000   0.217825   1.707169   0.000000
    6  F  2  S   -0.000000  -0.000000  -0.702674   0.190592   0.000000
    7  F  2  S   -0.000000  -0.000000  -1.622525   0.427403   0.000000
    8  F  2  S   -0.000000  -0.000000   2.522050   1.358186   0.000000
    9  F  2  X   -0.000000  -0.026756  -0.000000   0.000000   0.000000
   10  F  2  Y   -0.026756  -0.000000  -0.000000   0.000000   0.000000
   11  F  2  Z   -0.000000  -0.000000   0.170326   0.648105   0.000000
   12  F  2  X   -0.000000  -0.590143  -0.000000   0.000000   0.000000
   13  F  2  Y   -0.590143  -0.000000  -0.000000   0.000000   0.000000
   14  F  2  Z   -0.000000  -0.000000   0.616411   0.551412   0.000000
   15  F  2 XX   -0.000000  -0.000000   0.036355   0.040525   0.000000
   16  F  2 YY   -0.000000  -0.000000   0.036355   0.040525   0.000000
   17  F  2 ZZ   -0.000000  -0.000000  -0.072710  -0.081050   0.000000
   18  F  2 XY   -0.000000  -0.000000  -0.000000   0.000000   1.000000
   19  F  2 XZ   -0.000000   0.069382  -0.000000   0.000000   0.000000
   20  F  2 YZ    0.069382  -0.000000  -0.000000   0.000000   0.000000

                     16         17         18         19
                    3.9886     4.4135     4.4135     5.1501
                     A1         B2         B1         A1  
    1  H  1  S   -0.000000  -0.000000  -0.000000   1.970069
    2  H  1  S   -0.000000  -0.000000  -0.000000   0.144439
    3  H  1  X   -0.000000  -0.000000  -0.517239   0.000000
    4  H  1  Y   -0.000000  -0.517239  -0.000000   0.000000
    5  H  1  Z   -0.000000  -0.000000  -0.000000  -1.025839
    6  F  2  S   -0.000000  -0.000000  -0.000000   0.102530
    7  F  2  S   -0.000000  -0.000000  -0.000000   0.184553
    8  F  2  S   -0.000000  -0.000000  -0.000000  -1.892953
    9  F  2  X   -0.000000  -0.000000  -0.002917   0.000000
   10  F  2  Y   -0.000000  -0.002917  -0.000000   0.000000
   11  F  2  Z   -0.000000  -0.000000  -0.000000  -0.262593
   12  F  2  X   -0.000000  -0.000000   0.253291   0.000000
   13  F  2  Y   -0.000000   0.253291  -0.000000   0.000000
   14  F  2  Z   -0.000000  -0.000000  -0.000000  -1.199770
   15  F  2 XX    0.866025  -0.000000  -0.000000   0.602506
   16  F  2 YY   -0.866025  -0.000000  -0.000000   0.602506
   17  F  2 ZZ   -0.000000  -0.000000  -0.000000  -1.205013
   18  F  2 XY   -0.000000  -0.000000  -0.000000   0.000000
   19  F  2 XZ   -0.000000  -0.000000   1.068819   0.000000
   20  F  2 YZ   -0.000000   1.068819  -0.000000   0.000000
 .....DONE WITH MCSCF ITERATIONS.....
 STEP CPU TIME =     0.17 TOTAL CPU TIME =        0.3 (    0.0 MIN)
 TOTAL WALL CLOCK TIME=        0.3 SECONDS, CPU UTILIZATION IS 100.00%

     ----------------------------------------------------------------
     PROPERTY VALUES FOR THE MCSCF SELF-CONSISTENT FIELD WAVEFUNCTION
     ----------------------------------------------------------------

          -----------------
          ENERGY COMPONENTS
          -----------------

         WAVEFUNCTION NORMALIZATION =       1.0000000000

                ONE ELECTRON ENERGY =    -151.9829458040
                TWO ELECTRON ENERGY =      45.9644229516
           NUCLEAR REPULSION ENERGY =       6.0000000000
                                      ------------------
                       TOTAL ENERGY =    -100.0185228524

 ELECTRON-ELECTRON POTENTIAL ENERGY =      45.9644229516
  NUCLEUS-ELECTRON POTENTIAL ENERGY =    -252.3828575138
   NUCLEUS-NUCLEUS POTENTIAL ENERGY =       6.0000000000
                                      ------------------
             TOTAL POTENTIAL ENERGY =    -200.4184345621
               TOTAL KINETIC ENERGY =     100.3999117097
                 VIRIAL RATIO (V/T) =       1.9962013029

          ---------------------------------------
          MULLIKEN AND LOWDIN POPULATION ANALYSES
          ---------------------------------------

     ATOMIC MULLIKEN POPULATION IN EACH MOLECULAR ORBITAL

                      1          2          3          4          5

                  2.000000   2.000000   2.000000   2.000000   1.987891

    1            -0.000604   0.014841   0.035699   0.035699   0.802460
    2             2.000604   1.985159   1.964301   1.964301   1.185431

                      6

                  0.012109

    1             0.007030
    2             0.005079
 WARNING! MCSCF POPULATIONS SHOWN ABOVE ARE FOR THE NATURAL ORBITALS.
 IGNORE THE ABOVE DATA FOR MCSCF FUNCTIONS WHICH ARE NOT OF -FORS- TYPE.
 THE FOLLOWING POPULATIONS ARE CORRECT FOR ANY MCSCF WAVEFUNCTION.

               ----- POPULATIONS IN EACH AO -----
                             MULLIKEN      LOWDIN
              1  H  1  S      0.76343     0.55027
              2  H  1  S      0.00200     0.11619
              3  H  1  X      0.03570     0.10273
              4  H  1  Y      0.03570     0.10273
              5  H  1  Z      0.05830     0.10623
              6  F  2  S      2.00153     1.89791
              7  F  2  S      0.89005     0.62492
              8  F  2  S      0.89063     0.56739
              9  F  2  X      1.20109     1.15197
             10  F  2  Y      1.20109     1.15197
             11  F  2  Z      0.97839     0.93704
             12  F  2  X      0.76247     0.74521
             13  F  2  Y      0.76247     0.74521
             14  F  2  Z      0.41030     0.60727
             15  F  2 XX      0.00537     0.19278
             16  F  2 YY      0.00000     0.19278
             17  F  2 ZZ      0.00000     0.20721
             18  F  2 XY      0.00075     0.00000
             19  F  2 XZ      0.00075     0.00009
             20  F  2 YZ      0.00000     0.00009

          ----- MULLIKEN ATOMIC OVERLAP POPULATIONS -----
          (OFF-DIAGONAL ELEMENTS NEED TO BE MULTIPLIED BY 2)

             1           2

    1    0.5327400
    2    0.3623840   8.7424920

          TOTAL MULLIKEN AND LOWDIN ATOMIC POPULATIONS
       ATOM         MULL.POP.    CHARGE          LOW.POP.     CHARGE
    1 H             0.895124    0.104876         0.978159    0.021841
    2 F             9.104876   -0.104876         9.021841   -0.021841

          MULLIKEN SPHERICAL HARMONIC POPULATIONS
       ATOM           S       P       D      F      G      H      I    TOTAL
    1 H             0.77    0.13    0.00   0.00   0.00   0.00   0.00    0.90
    2 F             3.78    5.32    0.01   0.00   0.00   0.00   0.00    9.10

          ---------------------
          ELECTROSTATIC MOMENTS
          ---------------------

 POINT   1           X           Y           Z (BOHR)    CHARGE
                 0.000000    0.000000    0.075563        0.00 (A.U.)
         DX          DY          DZ         /D/  (DEBYE)
     0.000000    0.000000    1.643074    1.643074
 ...... END OF PROPERTY EVALUATION ......
 STEP CPU TIME =     0.00 TOTAL CPU TIME =        0.3 (    0.0 MIN)
 TOTAL WALL CLOCK TIME=        0.3 SECONDS, CPU UTILIZATION IS  96.15%

          -----------------          ---------------------------
          MC-QDPT2 (MR-MP2)          PROGRAM WRITTEN BY H.NAKANO
          -----------------          ---------------------------
                                         PARALLELIZED BY H.UMEDA
                                     ---------------------------


    ----------------------------
    MRMP/MCQDPT INPUT PARAMETERS
    ----------------------------
 # OF ELECTRONS                =        10
 SPIN MULTIPLICITY             =         1
 SPATIAL STATE SYMMETRY        =         1
 # OF STATES                   =         1 (DIMENSION OF EFFECTIVE HAMILTONIAN)
 # OF FROZEN CORE ORBITALS     =         0
 # OF DOUBLY OCCUPIED ORBITALS =         4
 # OF ACTIVE ORBITALS          =         2
 # OF EXTERNAL ORBITALS        =        13
 # OF FROZEN VIRTUAL ORBITALS  =         0

      IFORB      IROT    ISELCT    LENGTH    MAXCSF    MAXERI
          1         0         0      4096      2048      4096
     MAXROW       MDI    MXBASE    MXTRFR    NSOLUT     NSTCI     NSTOP
        200        50        50        80         1         1       100
     GENZRO    THRCON    THRENE    THRERI    THRGEN    THRWGT    REFWGT
  1.000D-12 1.000D-06-1.000D+00 1.000D-12 1.000D-08 1.000D-06       F
      NOSYM    PARAIO    DOORD0    DELSCR
          0         T         T         F

 THE WEIGHTS OF THE CAS STATES IN THE DENSITY MATRIX AVERAGING ARE
   1=  1.000000
 THE SYMMETRY OF EACH ORBITAL IS
    1= 1,A1      2= 1,A1      3= 4,B2      4= 3,B1      5= 1,A1      6= 1,A1  
    7= 1,A1      8= 1,A1      9= 4,B2     10= 3,B1     11= 4,B2     12= 3,B1  
   13= 1,A1     14= 1,A1     15= 2,A2     16= 1,A1     17= 4,B2     18= 3,B1  
   19= 1,A1  
 DASORT T
 THE CORRELATED ORBITALS RUN FROM     1 TO     6
 THE     ACTIVE ORBITALS RUN FROM     5 TO     6

 THE RESULTS OF REARRANGING THE ORBITALS BY SYMMETRY TYPE ARE
 SYM.       1       2       3       4       5       6       7       8
 -----------------------------------------------------------------------
 FZC /  0-  0/  0-  0/  0-  0/  0-  0/  0-  0/  0-  0/  0-  0/  0-  0/
 DOC /  1-  2/  0-  0/  3-  3/  4-  4/  0-  0/  0-  0/  0-  0/  0-  0/
 ACT /  5-  6/  0-  0/  0-  0/  0-  0/  0-  0/  0-  0/  0-  0/  0-  0/
 EXT /  7- 12/ 13- 13/ 14- 16/ 17- 19/  0-  0/  0-  0/  0-  0/  0-  0/
 -----------------------------------------------------------------------
 NUMBER OF SPACE ORBITAL PRODUCTS      =         3
 MAXIMUM NUMBER OF SPIN FUNCTIONS      =         1
 TOTAL NUMBER OF CSFS (ALL SYMMETRIES) =         3
 EVALUATING ONE-PARTICLE COUPLING CONSTANTS FOR CAS-CI...
 CAS-CI COUPLING CONSTANTS TOOK     0.0 SECONDS.
 EVALUATING ONE-PARTICLE COUPLING CONSTANTS FOR PT...
 PT COUPLING CONSTANTS TOOK     0.0 SECONDS.
 TOTAL NUMBER OF SYMMETRY ADAPTED CSFS =         3
 CPU TIME TO SET UP SYMMETRY, GENERATE CSFS, AND COUPLING CONSTANTS=      0.01

 TRANSFORMING INTEGRALS OVER OCCUPIED, UNCANONICAL MCSCF ORBITALS.

 SORTING DUPLICATED AO INTEGRAL LIST
 AO INTEGRAL FILE  8 READ     1 TIMES, SORTING TIME=      0.00

 MAXIMUM MEMDDI THAT CAN BE USED IN THE INTEGRAL TRANSFORMATION IS     1 MWORDS
    THE MEMDDI THAT WILL BE USED IN THE INTEGRAL TRANSFORMATION IS     0 MWORDS
 SMALLER AMOUNTS OF DDI MEMORY RUN WITH INCREASED I/O
 TIME FOR FIRST TWO INDEX TRANSFORM=      0.00
 NO. DISK READS FOR SUB.MQORD2 =         1
 TIME FOR  LAST TWO INDEX TRANSFORM=      0.00
 CPU TIME TO TRANSFORM INTEGRALS=      0.00

 SOLVING FOR CAS-CI STATE FUNCTIONS.

 ##########################
 ###   CAS-CI RESULTS   ###
 ##########################
 nwft0                    3                    2                    3
   2.0000000000000000        0.0000000000000000        0.0000000000000000        0.0000000000000000        1.0000000000000000        0.0000000000000000        0.0000000000000000        0.0000000000000000        0.0000000000000000     
   0.0000000000000000        1.4142135623730951        0.0000000000000000        0.0000000000000000        0.0000000000000000        1.4142135623730951        0.0000000000000000        0.0000000000000000        0.0000000000000000     
   0.0000000000000000        0.0000000000000000        0.0000000000000000        1.4142135623730951        0.0000000000000000        0.0000000000000000        0.0000000000000000        1.4142135623730951        0.0000000000000000     
   0.0000000000000000        0.0000000000000000        0.0000000000000000        0.0000000000000000        1.0000000000000000        0.0000000000000000        0.0000000000000000        0.0000000000000000        2.0000000000000000     
 CAS-CI STATES CONVERGED, COUPLING COEFFICIENT FILE 51 WAS READ   0 TIMES.

 STATE #    1  ENERGY =    -100.018522852

      CSF      COEF    OCCUPANCY (IGNORING CORE)
      ---      ----    --------- --------- -----
        1   -0.996964  20
        3    0.077807  02
 CPU TIME TO GENERATE REFERENCE CI STATES =      0.00

 *** ONE PARTICLE DENSITY MATRIX OVER ACTIVE MO-S ***
                   1            2
     1  1.987884E+00
     2  3.819866E-03 1.211639E-02

 OVERLAP OF THE CANONICAL ORBITALS WITH PREVIOUS MO INDEX:
    1 1.0000E+00    2 1.0000E+00    3 1.0000E+00    4 1.0000E+00    5 1.0000E+00
    6 1.0000E+00    7 1.0000E+00    8 1.0000E+00    9 1.0000E+00   10 1.0000E+00
   11 1.0000E+00   12 1.0000E+00   13 1.0000E+00   14 1.0000E+00   15 1.0000E+00
   16 1.0000E+00   17 1.0000E+00   18 1.0000E+00   19 1.0000E+00
 CPU TIME TO CANONICALIZE THE ORBITALS =      0.00

 TRANSFORMING INTEGRALS OVER ALL CANONICAL MCSCF ORBITALS.


 MAXIMUM MEMDDI THAT CAN BE USED IN THE INTEGRAL TRANSFORMATION IS     1 MWORDS
    THE MEMDDI THAT WILL BE USED IN THE INTEGRAL TRANSFORMATION IS     0 MWORDS
 SMALLER AMOUNTS OF DDI MEMORY RUN WITH INCREASED I/O
 TIME FOR FIRST TWO INDEX TRANSFORM=      0.00
 NO. DISK READS FOR SUB.MQORD2 =         1
 TIME FOR  LAST TWO INDEX TRANSFORM=      0.01
 CPU TIME TO TRANSFORM INTEGRALS=      0.01

 SOLVING FOR CAS-CI STATE FUNCTIONS IN CANONICAL ORBITAL BASIS

 ##########################
 ###   CAS-CI RESULTS   ###
 ##########################
 nwft0                    3                    2                    3
   2.0000000000000000        0.0000000000000000        0.0000000000000000        0.0000000000000000        1.0000000000000000        0.0000000000000000        0.0000000000000000        0.0000000000000000        0.0000000000000000     
   0.0000000000000000        1.4142135623730951        0.0000000000000000        0.0000000000000000        0.0000000000000000        1.4142135623730951        0.0000000000000000        0.0000000000000000        0.0000000000000000     
   0.0000000000000000        0.0000000000000000        0.0000000000000000        1.4142135623730951        0.0000000000000000        0.0000000000000000        0.0000000000000000        1.4142135623730951        0.0000000000000000     
   0.0000000000000000        0.0000000000000000        0.0000000000000000        0.0000000000000000        1.0000000000000000        0.0000000000000000        0.0000000000000000        0.0000000000000000        2.0000000000000000     
 CAS-CI STATES CONVERGED, COUPLING COEFFICIENT FILE 51 WAS READ   0 TIMES.

 STATE #    1  ENERGY =    -100.018522852

      CSF      COEF    OCCUPANCY (IGNORING CORE)
      ---      ----    --------- --------- -----
        1   -0.996964  20
        3    0.077807  02
 CPU TIME TO GENERATE REFERENCE CI STATES =      0.00

 *** ONE PARTICLE DENSITY MATRIX OVER CANONICAL ORBITALS ***
                   1            2
     1  1.987884E+00
     2  3.819871E-03 1.211639E-02

 *** ORBITAL ENERGIES OF THE CANONICAL ORBITALS ***
 DOUBLY OCCUPIED ORBITALS:
   -2.627527E+01  -1.416026E+00  -6.443333E-01  -6.443333E-01
 ACTIVE ORBITALS:
   -1.015692E+00   1.104864E+00
 VIRTUAL ORBITALS:
    3.921601E-01   1.345369E+00   2.104667E+00   2.700303E+00   3.988601E+00
    5.150130E+00   3.988601E+00   1.435313E+00   1.613890E+00   4.413522E+00
    1.435313E+00   1.613890E+00   4.413522E+00
 CPU TIME TO GENERATE ORBITAL ENERGIES =      0.00

 DISCARDING NEGLIGIBLE GENERATORS
 STEP ONE:  ORIGINAL SPACE PRODUCTS=            3 REDUCED TO            3
 STEP TWO: NUMBER OF SPACE PRODUCTS=            3 REDUCED TO            3
 CONDENSED LABELS MADE FOR             3 CSFS
 CPU TIME TO REDUCE GENERATORS TO MINIMUM =      0.00

 FINISHING SETUP FOR MRMP/MCQDPT CALCULATION.

 THE FROZEN CORE ENERGY IS        0.0000000000
 MAXIMUM MEMDDI THAT CAN BE USED IN THE PERTURBATION CALCULATION IS     1 MWORDS
    THE MEMDDI THAT WILL BE USED IN THE PERTURBATION CALCULATION IS     0 MWORDS
 SMALLER AMOUNTS OF DDI MEMORY RUN WITH INCREASED I/O
 PREPARING TRANSFORMED INTEGRALS FOR PT...
 TIME FOR FINISHING SETUPS =      0.00

 EVALUATING PERTURBATION THEORY CORRECTIONS TO HAMILTONIAN ELEMENTS.

 TIME FOR 0-BODY FORMULAE =      0.00
 TIME FOR 1-BODY FORMULAE =      0.00
 TIME FOR 2-BODY FORMULAE =      0.00
 TIME FOR 3-BODY FORMULAE =      0.00
 TIME FOR 0-BODY FORMULAE INVOLVING 2 EXTERNAL ORBITALS=      0.00
 TIME FOR 1-BODY FORMULAE INVOLVING 2 EXTERNAL ORBITALS=      0.00
 TIME FOR 2-BODY FORMULAE INVOLVING 2 EXTERNAL ORBITALS=      0.00
 TIME FOR PERTURBATION TREATMENT =      0.00

 SINGLE STATE MULTICONFIGURATIONAL PERTURBATION ENERGY (MRMP)

 #########################
 ###   MRMP2 RESULTS   ###
 #########################

 *** EFFECTIVE HAMILTONIAN (AT SECOND ORDER) ***
                   1
     1 -1.001975E+02

 *** ZEROTH ORDER ENERGIES ***
   STATE        0TH ORDER
     1      -59.9656215643

 *** DIAGONAL ELEMENTS OF EFFECTIVE HAMILTONIAN ***
   STATE                  2ND ORDER
     1   E(MRMP2)=     -100.1975202115

 *** MRMP2 ENERGY ***
   STATE                       1ST ORDER                       2ND ORDER
     1     E(MCSCF)=     -100.0185228524     E(MP2)=     -100.1975202115

 THE UNPERTURBED CAS-CI STATE(S) WERE PRINTED ABOVE

 THE PERTURBED STATE IS THE SAME AS THE UNPERTURBED STATE,
 SINCE THE EFFECTIVE HAMILTONIAN IS OF DIMENSION ONE.
 ...... END OF MC-QDPT2 (MR-MP2) CALCULATION ......

 ..... DONE WITH MP2 ENERGY .....
 STEP CPU TIME =     0.02 TOTAL CPU TIME =        0.3 (    0.0 MIN)
 TOTAL WALL CLOCK TIME=        0.3 SECONDS, CPU UTILIZATION IS 100.00%
 LABSIZ                    1                    1                   19                15000

     --------------------------------------------
     PARTIAL TWO ELECTRON INTEGRAL TRANSFORMATION
     --------------------------------------------

 NUMBER OF CORE MOLECULAR ORBITALS     =    0
 NUMBER OF OCCUPIED MOLECULAR ORBITALS =   19
 TOTAL NUMBER OF MOLECULAR ORBITALS    =   19
 TOTAL NUMBER OF ATOMIC ORBITALS       =   20
 THRESHOLD FOR KEEPING TRANSFORMED 2E- INTEGRALS = 1.000E-09
 AO INTEGRALS WILL BE READ IN FROM DISK...

 PLAN A: REQUIREMENTS FOR FULLY IN-MEMORY TRANSFORMATION:
 # OF WORDS AVAILABLE =              1000000
 # OF WORDS NEEDED    =               141842

 CHOOSING IN MEMORY PARTIAL TRANSFORMATION...
 TOTAL NUMBER OF TRANSFORMED 2E- INTEGRALS KEPT =         4809
 ... END OF INTEGRAL TRANSFORMATION ...
 STEP CPU TIME =     0.00 TOTAL CPU TIME =        0.3 (    0.0 MIN)
 TOTAL WALL CLOCK TIME=        0.3 SECONDS, CPU UTILIZATION IS  96.43%
               580000  WORDS OF DYNAMIC MEMORY USED
 EXECUTION OF GAMESS TERMINATED NORMALLY Sat Feb 27 03:22:22 2016
 DDI: 263640 bytes (0.3 MB / 0 MWords) used by master data server.

 ----------------------------------------
 CPU timing information for all processes
 ========================================
 0: 0.176 + 0.104 = 0.280
 ----------------------------------------
 ddikick.x: exited gracefully.
unset echo
----- accounting info -----
Files used on the master node coulson were:
-rw-rw-r-- 1 avijitsen avijitsen    9079 2016-02-27 03:22 /home/avijitsen/scr_lan_gamess/1576509531/mcqdpt.dat
-rw-rw-r-- 1 avijitsen avijitsen    6701 2016-02-27 03:22 /home/avijitsen/scr_lan_gamess/1576509531/mcqdpt.F05
-rw-rw-r-- 1 avijitsen avijitsen  180016 2016-02-27 03:22 /home/avijitsen/scr_lan_gamess/1576509531/mcqdpt.F08
-rw-rw-r-- 1 avijitsen avijitsen  181704 2016-02-27 03:22 /home/avijitsen/scr_lan_gamess/1576509531/mcqdpt.F09
-rw-rw-r-- 1 avijitsen avijitsen 1930480 2016-02-27 03:22 /home/avijitsen/scr_lan_gamess/1576509531/mcqdpt.F10
-rw-rw-r-- 1 avijitsen avijitsen  275296 2016-02-27 03:22 /home/avijitsen/scr_lan_gamess/1576509531/mcqdpt.F11
-rw-rw-r-- 1 avijitsen avijitsen     216 2016-02-27 03:22 /home/avijitsen/scr_lan_gamess/1576509531/mcqdpt.F12
-rw-rw-r-- 1 avijitsen avijitsen    2736 2016-02-27 03:22 /home/avijitsen/scr_lan_gamess/1576509531/mcqdpt.F13
-rw-rw-r-- 1 avijitsen avijitsen  400008 2016-02-27 03:22 /home/avijitsen/scr_lan_gamess/1576509531/mcqdpt.F14
-rw-rw-r-- 1 avijitsen avijitsen  180192 2016-02-27 03:22 /home/avijitsen/scr_lan_gamess/1576509531/mcqdpt.F15
-rw-rw-r-- 1 avijitsen avijitsen  180192 2016-02-27 03:22 /home/avijitsen/scr_lan_gamess/1576509531/mcqdpt.F16
-rw-rw-r-- 1 avijitsen avijitsen   62640 2016-02-27 03:22 /home/avijitsen/scr_lan_gamess/1576509531/mcqdpt.F23
-rw-rw-r-- 1 avijitsen avijitsen  196416 2016-02-27 03:22 /home/avijitsen/scr_lan_gamess/1576509531/mcqdpt.F50
-rw-rw-r-- 1 avijitsen avijitsen     240 2016-02-27 03:22 /home/avijitsen/scr_lan_gamess/1576509531/mcqdpt.F51
-rw-rw-r-- 1 avijitsen avijitsen     544 2016-02-27 03:22 /home/avijitsen/scr_lan_gamess/1576509531/mcqdpt.F52
-rw-rw-r-- 1 avijitsen avijitsen     544 2016-02-27 03:22 /home/avijitsen/scr_lan_gamess/1576509531/mcqdpt.F53
-rw-rw-r-- 1 avijitsen avijitsen     544 2016-02-27 03:22 /home/avijitsen/scr_lan_gamess/1576509531/mcqdpt.F54
-rw-rw-r-- 1 avijitsen avijitsen  110944 2016-02-27 03:22 /home/avijitsen/scr_lan_gamess/1576509531/mcqdpt.F55
-rw-rw-r-- 1 avijitsen avijitsen   66064 2016-02-27 03:22 /home/avijitsen/scr_lan_gamess/1576509531/mcqdpt.F56
-rw-rw-r-- 1 avijitsen avijitsen    3160 2016-02-27 03:22 /home/avijitsen/scr_lan_gamess/1576509531/mcqdpt.F57
-rw-rw-r-- 1 avijitsen avijitsen    9928 2016-02-27 03:22 /home/avijitsen/scr_lan_gamess/1576509531/mcqdpt.F58
-rw-rw-r-- 1 avijitsen avijitsen   20888 2016-02-27 03:22 /home/avijitsen/scr_lan_gamess/1576509531/mcqdpt.F59
-rw-rw-r-- 1 avijitsen avijitsen   66096 2016-02-27 03:22 /home/avijitsen/scr_lan_gamess/1576509531/mcqdpt.F60
-rw-rw-r-- 1 avijitsen avijitsen     192 2016-02-27 03:22 /home/avijitsen/scr_lan_gamess/1576509531/mcqdpt.F61
-rw-rw-r-- 1 avijitsen avijitsen     336 2016-02-27 03:22 /home/avijitsen/scr_lan_gamess/1576509531/mcqdpt.F62
-rw-rw-r-- 1 avijitsen avijitsen    6200 2016-02-27 03:22 /home/avijitsen/scr_lan_gamess/1576509531/mcqdpt.F63
-rw-rw-r-- 1 avijitsen avijitsen     232 2016-02-27 03:22 /home/avijitsen/scr_lan_gamess/1576509531/mcqdpt.F64
ls: No match.
ls: No match.
ls: No match.
Sat Feb 27 03:22:25 IST 2016
0.264u 0.068s 0:03.75 8.5%	0+0k 0+32io 0pf+0w
